<?xml version="1.0" encoding="UTF-8"?>

<!-- generated on 05/14/21 11:12:51 by Eclipse SUMO GUI Version 1.8.0
<configuration xmlns:xsi="http://www.w3.org/2001/XMLSchema-instance" xsi:noNamespaceSchemaLocation="http://sumo.dlr.de/xsd/sumoConfiguration.xsd">

    <input>
        <net-file value="traffic.net.xml"/>
        <route-files value="traffic.rou.xml"/>
    </input>

    <output>
        <tripinfo-output value="tripinfo.xml"/>
    </output>

    <traci_server>
        <remote-port value="63156"/>
    </traci_server>

</configuration>
-->

<tripinfos xmlns:xsi="http://www.w3.org/2001/XMLSchema-instance" xsi:noNamespaceSchemaLocation="http://sumo.dlr.de/xsd/tripinfo_file.xsd">
    <tripinfo id="1" depart="0.00" departLane="rB-incoming_0" departPos="3.10" departSpeed="0.00" departDelay="0.00" arrival="19.00" arrivalLane="rA-outgoing_0" arrivalPos="92.80" arrivalSpeed="25.05" duration="19.00" routeLength="191.53" waitingTime="0.00" waitingCount="0" stopTime="0.00" timeLoss="12.42" rerouteNo="0" devices="tripinfo_1" vType="car" speedFactor="0.94" vaporized=""/>
    <tripinfo id="6" depart="3.00" departLane="rB-incoming_0" departPos="5.10" departSpeed="0.00" departDelay="0.00" arrival="34.00" arrivalLane="rA-outgoing_0" arrivalPos="92.80" arrivalSpeed="21.39" duration="31.00" routeLength="189.53" waitingTime="0.00" waitingCount="0" stopTime="0.00" timeLoss="23.50" rerouteNo="0" devices="tripinfo_6" vType="truck" speedFactor="1.02" vaporized=""/>
    <tripinfo id="10" depart="5.00" departLane="rB-incoming_0" departPos="3.10" departSpeed="0.00" departDelay="1.00" arrival="36.00" arrivalLane="rD-outgoing_0" arrivalPos="92.80" arrivalSpeed="14.83" duration="31.00" routeLength="196.90" waitingTime="0.00" waitingCount="0" stopTime="0.00" timeLoss="21.80" rerouteNo="0" devices="tripinfo_10" vType="car" speedFactor="1.09" vaporized=""/>
    <tripinfo id="15" depart="11.00" departLane="rB-incoming_0" departPos="3.10" departSpeed="0.00" departDelay="0.00" arrival="39.00" arrivalLane="rA-outgoing_0" arrivalPos="92.80" arrivalSpeed="26.96" duration="28.00" routeLength="191.53" waitingTime="0.00" waitingCount="0" stopTime="0.00" timeLoss="21.04" rerouteNo="0" devices="tripinfo_15" vType="car" speedFactor="0.93" vaporized=""/>
    <tripinfo id="2" depart="1.00" departLane="rC-incoming_0" departPos="4.10" departSpeed="0.00" departDelay="0.00" arrival="56.00" arrivalLane="rA-outgoing_0" arrivalPos="92.80" arrivalSpeed="19.48" duration="55.00" routeLength="195.90" waitingTime="30.00" waitingCount="1" stopTime="0.00" timeLoss="48.08" rerouteNo="0" devices="tripinfo_2" vType="bus" speedFactor="1.01" vaporized=""/>
    <tripinfo id="7" depart="3.00" departLane="rC-incoming_0" departPos="4.10" departSpeed="0.00" departDelay="0.00" arrival="59.00" arrivalLane="rD-outgoing_0" arrivalPos="92.80" arrivalSpeed="11.99" duration="56.00" routeLength="195.69" waitingTime="28.00" waitingCount="1" stopTime="0.00" timeLoss="43.63" rerouteNo="0" devices="tripinfo_7" vType="bus" speedFactor="0.89" vaporized=""/>
    <tripinfo id="21" depart="24.00" departLane="rC-incoming_0" departPos="4.10" departSpeed="0.00" departDelay="4.00" arrival="82.00" arrivalLane="rD-outgoing_0" arrivalPos="92.80" arrivalSpeed="12.94" duration="58.00" routeLength="195.69" waitingTime="1.00" waitingCount="1" stopTime="0.00" timeLoss="46.21" rerouteNo="0" devices="tripinfo_21" vType="bus" speedFactor="1.01" vaporized=""/>
    <tripinfo id="22" depart="28.00" departLane="rC-incoming_0" departPos="3.10" departSpeed="0.00" departDelay="8.00" arrival="85.00" arrivalLane="rD-outgoing_0" arrivalPos="92.80" arrivalSpeed="12.68" duration="57.00" routeLength="196.69" waitingTime="0.00" waitingCount="0" stopTime="0.00" timeLoss="45.30" rerouteNo="0" devices="tripinfo_22" vType="car" speedFactor="0.98" vaporized=""/>
    <tripinfo id="25" depart="30.00" departLane="rC-incoming_0" departPos="3.10" departSpeed="0.00" departDelay="8.00" arrival="85.00" arrivalLane="rB-outgoing_0" arrivalPos="92.80" arrivalSpeed="22.81" duration="55.00" routeLength="191.53" waitingTime="0.00" waitingCount="0" stopTime="0.00" timeLoss="47.98" rerouteNo="0" devices="tripinfo_25" vType="car" speedFactor="0.87" vaporized=""/>
    <tripinfo id="8" depart="5.00" departLane="rC-incoming_0" departPos="2.10" departSpeed="0.00" departDelay="1.00" arrival="86.00" arrivalLane="rA-outgoing_0" arrivalPos="92.80" arrivalSpeed="5.95" duration="81.00" routeLength="197.90" waitingTime="0.00" waitingCount="0" stopTime="0.00" timeLoss="60.94" rerouteNo="0" devices="tripinfo_8" vType="bicycle" speedFactor="0.94" vaporized=""/>
    <tripinfo id="14" depart="12.00" departLane="rC-incoming_0" departPos="3.10" departSpeed="0.00" departDelay="1.00" arrival="87.00" arrivalLane="rA-outgoing_0" arrivalPos="92.80" arrivalSpeed="9.92" duration="75.00" routeLength="196.90" waitingTime="0.00" waitingCount="0" stopTime="0.00" timeLoss="70.00" rerouteNo="0" devices="tripinfo_14" vType="car" speedFactor="0.99" vaporized=""/>
    <tripinfo id="16" depart="17.00" departLane="rC-incoming_0" departPos="3.10" departSpeed="0.00" departDelay="6.00" arrival="89.00" arrivalLane="rA-outgoing_0" arrivalPos="92.80" arrivalSpeed="11.43" duration="72.00" routeLength="196.90" waitingTime="0.00" waitingCount="0" stopTime="0.00" timeLoss="66.31" rerouteNo="0" devices="tripinfo_16" vType="car" speedFactor="0.88" vaporized=""/>
    <tripinfo id="20" depart="20.00" departLane="rC-incoming_0" departPos="3.10" departSpeed="0.00" departDelay="0.00" arrival="91.00" arrivalLane="rA-outgoing_0" arrivalPos="92.80" arrivalSpeed="14.69" duration="71.00" routeLength="196.90" waitingTime="0.00" waitingCount="0" stopTime="0.00" timeLoss="65.81" rerouteNo="0" devices="tripinfo_20" vType="car" speedFactor="1.02" vaporized=""/>
    <tripinfo id="3" depart="1.00" departLane="rD-incoming_0" departPos="2.10" departSpeed="0.00" departDelay="0.00" arrival="121.00" arrivalLane="rB-outgoing_0" arrivalPos="92.80" arrivalSpeed="5.76" duration="120.00" routeLength="197.90" waitingTime="39.00" waitingCount="1" stopTime="0.00" timeLoss="99.82" rerouteNo="0" devices="tripinfo_3" vType="bicycle" speedFactor="1.08" vaporized=""/>
    <tripinfo id="4" depart="7.00" departLane="rD-incoming_0" departPos="2.10" departSpeed="0.00" departDelay="5.00" arrival="123.00" arrivalLane="rB-outgoing_0" arrivalPos="92.80" arrivalSpeed="8.89" duration="116.00" routeLength="197.90" waitingTime="38.00" waitingCount="1" stopTime="0.00" timeLoss="110.88" rerouteNo="0" devices="tripinfo_4" vType="motorcycle" speedFactor="1.03" vaporized=""/>
    <tripinfo id="5" depart="2.00" departLane="rA-incoming_0" departPos="3.10" departSpeed="0.00" departDelay="0.00" arrival="125.00" arrivalLane="rD-outgoing_0" arrivalPos="92.80" arrivalSpeed="9.89" duration="123.00" routeLength="191.53" waitingTime="96.00" waitingCount="1" stopTime="0.00" timeLoss="109.97" rerouteNo="0" devices="tripinfo_5" vType="car" speedFactor="0.83" vaporized=""/>
    <tripinfo id="17" depart="12.00" departLane="rD-incoming_0" departPos="2.10" departSpeed="0.00" departDelay="0.00" arrival="131.00" arrivalLane="rB-outgoing_0" arrivalPos="92.80" arrivalSpeed="5.48" duration="119.00" routeLength="197.90" waitingTime="30.00" waitingCount="1" stopTime="0.00" timeLoss="98.74" rerouteNo="0" devices="tripinfo_17" vType="bicycle" speedFactor="0.94" vaporized=""/>
    <tripinfo id="18" depart="20.00" departLane="rD-incoming_0" departPos="3.10" departSpeed="0.00" departDelay="8.00" arrival="132.00" arrivalLane="rB-outgoing_0" arrivalPos="92.80" arrivalSpeed="8.45" duration="112.00" routeLength="196.90" waitingTime="29.00" waitingCount="1" stopTime="0.00" timeLoss="106.70" rerouteNo="0" devices="tripinfo_18" vType="car" speedFactor="0.94" vaporized=""/>
    <tripinfo id="29" depart="24.00" departLane="rD-incoming_0" departPos="3.10" departSpeed="0.00" departDelay="1.00" arrival="134.00" arrivalLane="rB-outgoing_0" arrivalPos="92.80" arrivalSpeed="12.24" duration="110.00" routeLength="196.90" waitingTime="29.00" waitingCount="1" stopTime="0.00" timeLoss="104.53" rerouteNo="0" devices="tripinfo_29" vType="car" speedFactor="0.93" vaporized=""/>
    <tripinfo id="0" depart="0.00" departLane="rA-incoming_0" departPos="3.10" departSpeed="0.00" departDelay="0.00" arrival="136.00" arrivalLane="rB-outgoing_0" arrivalPos="92.80" arrivalSpeed="13.32" duration="136.00" routeLength="196.69" waitingTime="97.00" waitingCount="1" stopTime="0.00" timeLoss="129.71" rerouteNo="0" devices="tripinfo_0" vType="car" speedFactor="1.06" vaporized=""/>
    <tripinfo id="13" depart="15.00" departLane="rA-incoming_0" departPos="4.10" departSpeed="0.00" departDelay="5.00" arrival="138.00" arrivalLane="rC-outgoing_0" arrivalPos="92.80" arrivalSpeed="19.75" duration="123.00" routeLength="195.90" waitingTime="77.00" waitingCount="1" stopTime="0.00" timeLoss="116.24" rerouteNo="0" devices="tripinfo_13" vType="bus" speedFactor="1.12" vaporized=""/>
    <tripinfo id="9" depart="4.00" departLane="rA-incoming_0" departPos="2.10" departSpeed="0.00" departDelay="0.00" arrival="139.00" arrivalLane="rB-outgoing_0" arrivalPos="92.80" arrivalSpeed="13.94" duration="135.00" routeLength="197.69" waitingTime="91.00" waitingCount="1" stopTime="0.00" timeLoss="127.35" rerouteNo="0" devices="tripinfo_9" vType="motorcycle" speedFactor="0.86" vaporized=""/>
    <tripinfo id="11" depart="10.00" departLane="rA-incoming_0" departPos="3.10" departSpeed="0.00" departDelay="0.00" arrival="140.00" arrivalLane="rB-outgoing_0" arrivalPos="92.80" arrivalSpeed="14.17" duration="130.00" routeLength="196.69" waitingTime="90.00" waitingCount="1" stopTime="0.00" timeLoss="123.29" rerouteNo="0" devices="tripinfo_11" vType="car" speedFactor="1.03" vaporized=""/>
    <tripinfo id="19" depart="17.00" departLane="rA-incoming_0" departPos="3.10" departSpeed="0.00" departDelay="5.00" arrival="140.00" arrivalLane="rD-outgoing_0" arrivalPos="92.80" arrivalSpeed="14.72" duration="123.00" routeLength="191.53" waitingTime="77.00" waitingCount="1" stopTime="0.00" timeLoss="113.01" rerouteNo="0" devices="tripinfo_19" vType="car" speedFactor="1.16" vaporized=""/>
    <tripinfo id="12" depart="12.00" departLane="rA-incoming_0" departPos="5.10" departSpeed="0.00" departDelay="2.00" arrival="145.00" arrivalLane="rB-outgoing_0" arrivalPos="92.80" arrivalSpeed="15.95" duration="133.00" routeLength="194.69" waitingTime="78.00" waitingCount="1" stopTime="0.00" timeLoss="124.76" rerouteNo="0" devices="tripinfo_12" vType="truck" speedFactor="1.02" vaporized=""/>
    <tripinfo id="23" depart="21.00" departLane="rA-incoming_0" departPos="2.10" departSpeed="0.00" departDelay="0.00" arrival="147.00" arrivalLane="rB-outgoing_0" arrivalPos="92.80" arrivalSpeed="18.20" duration="126.00" routeLength="197.69" waitingTime="75.00" waitingCount="1" stopTime="0.00" timeLoss="118.09" rerouteNo="0" devices="tripinfo_23" vType="motorcycle" speedFactor="0.89" vaporized=""/>
    <tripinfo id="24" depart="23.00" departLane="rA-incoming_0" departPos="3.10" departSpeed="0.00" departDelay="1.00" arrival="148.00" arrivalLane="rB-outgoing_0" arrivalPos="92.80" arrivalSpeed="17.87" duration="125.00" routeLength="196.69" waitingTime="74.00" waitingCount="1" stopTime="0.00" timeLoss="117.15" rerouteNo="0" devices="tripinfo_24" vType="car" speedFactor="0.83" vaporized=""/>
    <tripinfo id="27" depart="26.00" departLane="rA-incoming_0" departPos="4.10" departSpeed="0.00" departDelay="3.00" arrival="148.00" arrivalLane="rC-outgoing_0" arrivalPos="92.80" arrivalSpeed="20.18" duration="122.00" routeLength="195.90" waitingTime="73.00" waitingCount="1" stopTime="0.00" timeLoss="115.30" rerouteNo="0" devices="tripinfo_27" vType="bus" speedFactor="0.95" vaporized=""/>
    <tripinfo id="30" depart="29.00" departLane="rA-incoming_0" departPos="3.10" departSpeed="0.00" departDelay="6.00" arrival="151.00" arrivalLane="rD-outgoing_0" arrivalPos="92.80" arrivalSpeed="15.88" duration="122.00" routeLength="191.53" waitingTime="74.00" waitingCount="1" stopTime="0.00" timeLoss="112.38" rerouteNo="0" devices="tripinfo_30" vType="car" speedFactor="1.18" vaporized=""/>
    <tripinfo id="26" depart="34.00" departLane="rC-incoming_0" departPos="5.10" departSpeed="0.00" departDelay="12.00" arrival="175.00" arrivalLane="rB-outgoing_0" arrivalPos="92.80" arrivalSpeed="18.65" duration="141.00" routeLength="189.53" waitingTime="79.00" waitingCount="1" stopTime="0.00" timeLoss="133.64" rerouteNo="0" devices="tripinfo_26" vType="truck" speedFactor="0.96" vaporized=""/>
    <tripinfo id="28" depart="39.00" departLane="rC-incoming_0" departPos="3.10" departSpeed="0.00" departDelay="16.00" arrival="175.00" arrivalLane="rA-outgoing_0" arrivalPos="92.80" arrivalSpeed="26.36" duration="136.00" routeLength="196.90" waitingTime="79.00" waitingCount="1" stopTime="0.00" timeLoss="130.96" rerouteNo="0" devices="tripinfo_28" vType="car" speedFactor="1.13" vaporized=""/>
</tripinfos>
